LAMMPS Description 

21000 atoms
20000 bonds

3 atom types
1 bond types

-20 20 xlo xhi
-20 20 ylo yhi
-20 20 zlo zhi

Masses

1 1
2 1
3 1

Atoms # id mol type xu yu zu 

1 1 1  18.89569 19.89866 -17.42604
2 1 1  18.68258 19.07789 -16.92082
3 1 1  17.85572 19.58817 -15.83896
4 1 1  17.82169 19.26483 -15.34857
5 1 1  17.877 19.81988 -14.96034
6 1 1  18.79698 19.63919 -14.52883
7 1 1  17.73357 19.78387 -15.13977
8 1 1  17.9067 19.95504 -15.61603
9 1 1  18.34426 20.14486 -16.91073
10 1 1  18.02268 20.65133 -17.42345
11 1 1  16.98064 20.66301 -17.51809
12 1 1  16.48882 20.46395 -17.28395
13 1 1  16.27094 19.51425 -17.22752
14 1 1  15.84048 19.2878 -17.19964
15 1 1  16.44965 19.35215 -16.67009
16 1 1  15.80524 19.70641 -16.41153
17 1 1  16.7167 19.82028 -16.20909
18 1 1  17.32976 19.48895 -16.87025
19 1 1  17.35254 19.66605 -17.8434
20 1 1  17.94991 20.27793 -17.83846
21 1 1  17.9137 20.35007 -18.44244
22 2 1  10.13614 -19.2853 -12.05412
23 2 1  9.89319 -19.06996 -11.87519
24 2 1  10.29139 -18.36832 -12.29896
25 2 1  11.93882 -18.02778 -12.79798
26 2 1  12.4411 -18.41395 -12.35473
27 2 1  12.23388 -18.5954 -11.98861
28 2 1  13.14004 -19.32658 -11.18851
29 2 1  12.73299 -19.31307 -11.08134
30 2 1  12.54272 -20.05701 -10.86238
31 2 1  12.65068 -20.82184 -11.25938
32 2 1  13.05123 -21.97382 -11.13279
33 2 1  12.90461 -22.4085 -10.96335
34 2 1  12.09189 -22.16703 -11.98709
35 2 1  11.70723 -22.22044 -12.20736
36 2 1  12.41498 -22.30424 -12.13505
37 2 1  12.08281 -22.07967 -12.05953
38 2 1  12.13711 -21.96995 -12.79238
39 2 1  11.89472 -22.16968 -12.71605
40 2 1  11.68247 -22.92369 -13.3007
41 2 1  11.39672 -23.35649 -12.60412
42 2 1  10.14147 -23.08018 -13.14107
43 3 1  6.24877 -13.86273 -2.69728
44 3 1  5.47603 -14.02679 -3.87949
45 3 1  5.7729 -14.88598 -3.91435
46 3 1  5.73435 -15.29166 -3.38275
47 3 1  5.34783 -15.63236 -3.49375
48 3 1  4.84973 -15.56717 -2.94056
49 3 1  5.1119 -15.17357 -4.12341
50 3 1  5.08322 -15.43998 -4.38716
51 3 1  5.0156 -15.45577 -4.47052
52 3 1  4.97397 -15.68775 -5.03093
53 3 1  6.48713 -15.78332 -4.55343
54 3 1  6.33298 -15.31219 -4.9694
55 3 1  7.15671 -15.55414 -5.17669
56 3 1  6.77062 -14.62402 -4.73569
57 3 1  7.87717 -13.60775 -4.87554
58 3 1  8.03621 -14.40918 -5.38857
59 3 1  8.58384 -14.18796 -4.76762
60 3 1  8.57137 -13.66643 -4.79087
61 3 1  8.65048 -14.04968 -4.25373
62 3 1  8.82893 -14.05658 -4.14403
63 3 1  8.47303 -15.02481 -3.72388
64 4 1  8.57033 9.31984 -7.34577
65 4 1  8.14274 7.78626 -8.32456
66 4 1  7.75699 7.67457 -8.07
67 4 1  7.85757 7.99134 -7.49147
68 4 1  7.03998 7.45061 -6.31193
69 4 1  6.39767 6.85469 -5.92022
70 4 1  5.67738 6.76983 -6.14225
71 4 1  5.56886 6.77257 -5.46161
72 4 1  5.44948 6.65348 -4.97113
73 4 1  5.21782 7.0264 -4.71141
74 4 1  4.84271 6.52092 -4.65421
75 4 1  4.36696 5.90836 -4.39406
76 4 1  4.40972 6.08118 -2.80499
77 4 1  5.51716 6.57043 -2.47016
78 4 1  5.02651 7.40795 -3.05084
79 4 1  4.81232 6.65716 -3.14554
80 4 1  4.95835 7.31525 -2.68256
81 4 1  5.78204 7.43586 -3.11029
82 4 1  5.60607 6.65946 -2.84497
83 4 1  6.67566 5.78101 -3.58274
84 4 1  6.93991 6.80968 -2.63441
85 5 1  18.72866 -4.37295 14.11976
86 5 1  17.88313 -3.91008 13.88446
87 5 1  17.60979 -3.58746 13.30985
88 5 1  17.01729 -2.42581 13.56319
89 5 1  17.33168 -1.60615 12.69761
90 5 1  17.75421 -1.62666 12.02235
91 5 1  17.91547 -1.48522 11.31744
92 5 1  17.98393 -0.42575 11.29067
93 5 1  17.66166 -0.42376 11.85605
94 5 1  17.40599 0.54331 12.15103
95 5 1  18.1143 0.31305 11.89355
96 5 1  17.83762 1.54361 12.02652
97 5 1  18.41632 1.59005 12.57761
98 5 1  19.01711 1.14871 11.83037
99 5 1  18.68456 1.48579 12.49058
100 5 1  18.98408 2.74994 12.43986
101 5 1  17.97314 3.05246 12.3772
102 5 1  18.80712 3.362 12.01312
103 5 1  18.73624 3.75855 11.85999
104 5 1  17.86179 2.58384 12.74789
105 5 1  18.8249 4.15225 12.97647
106 6 1  -9.20656 -15.01515 -10.9472
107 6 1  -9.34742 -14.36542 -11.20395
108 6 1  -9.51209 -14.63616 -11.08501
109 6 1  -8.42302 -13.42523 -12.68276
110 6 1  -8.20547 -13.81404 -12.92543
111 6 1  -9.05408 -13.73592 -13.21362
112 6 1  -9.98308 -13.15201 -13.32115
113 6 1  -10.46211 -12.5625 -13.40481
114 6 1  -10.03757 -12.98462 -13.93458
115 6 1  -9.60163 -12.94383 -14.24649
116 6 1  -10.56379 -12.71118 -14.01151
117 6 1  -10.21789 -12.27342 -14.80341
118 6 1  -10.28037 -12.1613 -14.09991
119 6 1  -9.81863 -11.66369 -13.46233
120 6 1  -10.0956 -11.36842 -12.44511
121 6 1  -8.93448 -10.7727 -12.35656
122 6 1  -9.49495 -10.74405 -11.50069
123 6 1  -9.20247 -11.03157 -11.92127
124 6 1  -8.34746 -10.01922 -11.77136
125 6 1  -7.78919 -11.08963 -11.79187
126 6 1  -8.0737 -9.6858 -11.76133
127 7 1  -4.42327 10.17611 -14.61749
128 7 1  -4.61904 10.61321 -15.47424
129 7 1  -5.62864 10.81635 -14.10526
130 7 1  -5.23048 12.10897 -13.61883
131 7 1  -4.34382 12.9384 -13.78013
132 7 1  -3.71159 12.42518 -14.08667
133 7 1  -3.2079 12.05875 -14.08196
134 7 1  -3.02288 12.58727 -14.02241
135 7 1  -3.06027 12.24498 -14.01614
136 7 1  -3.32778 13.09894 -13.91491
137 7 1  -3.5714 14.22795 -15.20446
138 7 1  -2.81584 14.26143 -15.43439
139 7 1  -2.61671 13.38375 -14.91836
140 7 1  -2.68271 12.73365 -16.0272
141 7 1  -3.83025 12.84556 -15.84075
142 7 1  -4.13134 12.98226 -15.07025
143 7 1  -3.77755 11.82941 -16.0412
144 7 1  -3.07218 12.16755 -16.58816
145 7 1  -3.47418 11.85532 -15.59081
146 7 1  -3.60714 12.12534 -15.50661
147 7 1  -4.09382 11.40504 -13.86918
148 8 1  -13.26938 -1.45585 16.51633
149 8 1  -12.32446 -0.73125 17.07837
150 8 1  -11.46838 -0.02938 17.24427
151 8 1  -10.96989 -1.02484 17.17504
152 8 1  -11.14668 -1.1406 16.89516
153 8 1  -10.71351 -1.24665 16.49446
154 8 1  -10.24901 -2.2858 16.4829
155 8 1  -10.96691 -1.97843 16.46771
156 8 1  -10.18914 -1.09892 16.45908
157 8 1  -10.33568 -1.13198 17.63734
158 8 1  -10.11245 -1.16823 17.28875
159 8 1  -10.78113 -0.95661 17.01176
160 8 1  -10.81398 -0.89257 17.65491
161 8 1  -11.49986 -2.1449 18.57136
162 8 1  -12.6899 -2.20739 18.78768
163 8 1  -12.20184 -2.788 17.36627
164 8 1  -11.71184 -1.36633 17.59812
165 8 1  -12.15462 -2.15231 17.53437
166 8 1  -11.84746 -2.87282 17.09426
167 8 1  -12.50371 -2.52143 16.91352
168 8 1  -11.40362 -3.01562 17.48429
169 9 1  5.81396 -2.33869 3.63683
170 9 1  5.67285 -2.08167 3.32008
171 9 1  6.20202 -2.13981 2.70084
172 9 1  7.21923 -1.68357 2.70889
173 9 1  6.60544 -2.03136 2.47794
174 9 1  5.6024 -2.32618 2.4994
175 9 1  5.9995 -2.60825 2.21805
176 9 1  5.99494 -2.91191 2.53522
177 9 1  5.26622 -3.0269 1.87449
178 9 1  5.64537 -3.20996 0.96617
179 9 1  7.27841 -3.38301 1.112
180 9 1  6.27403 -2.71502 0.79648
181 9 1  5.5907 -3.07515 0.91055
182 9 1  5.72584 -2.34933 2.01298
183 9 1  5.98048 -2.20884 2.22379
184 9 1  6.15644 -1.9985 2.64826
185 9 1  6.38417 -1.92348 1.32145
186 9 1  6.88953 -1.46139 2.12838
187 9 1  6.6442 -1.6782 2.32768
188 9 1  6.34348 -1.57072 2.19247
189 9 1  6.01306 -0.99427 1.07552
190 10 1  17.4339 11.8639 10.4465
191 10 1  17.05456 11.81597 10.40446
192 10 1  17.43468 12.18304 10.31823
193 10 1  16.76538 11.21132 10.17494
194 10 1  17.17509 11.81602 10.64982
195 10 1  17.95215 10.71553 10.55867
196 10 1  18.10963 10.77143 10.96038
197 10 1  17.59345 11.36759 10.9907
198 10 1  17.93154 11.37948 10.47389
199 10 1  17.69671 10.74693 10.86704
200 10 1  18.4181 10.14105 10.56943
201 10 1  18.38055 10.72893 10.73321
202 10 1  18.36048 10.92493 10.00214
203 10 1  18.97202 11.55593 9.16934
204 10 1  18.73232 11.80349 9.44144
205 10 1  18.9609 11.95545 10.27729
206 10 1  18.84814 12.65636 10.69272
207 10 1  19.08707 11.39593 9.89561
208 10 1  17.35693 12.04225 9.92766
209 10 1  17.62089 12.04846 9.72272
210 10 1  16.45387 11.57234 10.26909
211 11 1  2.10552 18.20741 -16.74478
212 11 1  3.04309 17.99546 -17.59948
213 11 1  3.1295 18.2527 -17.71966
214 11 1  3.74789 18.48486 -18.40856
215 11 1  3.41237 18.39136 -18.5364
216 11 1  2.49318 19.06842 -17.50177
217 11 1  1.43889 20.02576 -16.62813
218 11 1  1.28258 18.81392 -16.23377
219 11 1  1.58946 18.69729 -16.47613
220 11 1  1.5914 18.55969 -16.18691
221 11 1  2.32836 18.77002 -15.01197
222 11 1  2.8916 18.52404 -14.46788
223 11 1  3.16814 18.07644 -14.19287
224 11 1  3.18903 17.96911 -14.76169
225 11 1  2.46426 17.91354 -15.01232
226 11 1  1.4489 17.19419 -15.09856
227 11 1  1.50087 16.14622 -15.24302
228 11 1  1.49331 16.18955 -15.43317
229 11 1  1.7552 16.13966 -16.27426
230 11 1  0.91301 16.80098 -17.07456
231 11 1  1.91356 16.29685 -17.72393
232 12 1  13.8918 5.67678 9.93588
233 12 1  13.69849 6.20424 9.68307
234 12 1  13.0595 6.11949 9.58376
235 12 1  12.82335 6.52307 9.07898
236 12 1  12.56052 5.261 8.95391
237 12 1  12.57796 5.9229 8.98479
238 12 1  12.13822 5.86645 9.31289
239 12 1  12.30757 6.39212 9.59514
240 12 1  12.60183 7.21958 10.46092
241 12 1  12.35861 6.36417 9.8965
242 12 1  12.1124 6.31523 9.02752
243 12 1  12.01458 5.96629 8.98923
244 12 1  13.05982 6.84446 9.46063
245 12 1  14.01124 6.81193 9.68847
246 12 1  14.17411 6.5364 9.07398
247 12 1  13.85331 6.39462 9.14254
248 12 1  14.17664 5.70697 9.01148
249 12 1  14.58606 5.81898 9.27252
250 12 1  14.73948 5.57144 8.57669
251 12 1  14.5291 5.45538 8.08488
252 12 1  14.95258 5.88081 7.73229
253 13 1  -7.21789 -9.93418 13.75737
254 13 1  -7.58454 -9.83852 12.63728
255 13 1  -8.04588 -9.84084 13.55827
256 13 1  -8.13347 -9.36244 13.10823
257 13 1  -8.36988 -9.79528 13.79764
258 13 1  -7.85224 -9.31796 14.08028
259 13 1  -7.70018 -9.98212 14.72587
260 13 1  -6.97487 -9.85132 14.54258
261 13 1  -6.4759 -10.54976 14.1787
262 13 1  -6.31817 -10.05228 14.58422
263 13 1  -6.97027 -9.74952 13.99521
264 13 1  -7.15797 -9.72353 14.27815
265 13 1  -7.6769 -8.86274 14.94699
266 13 1  -8.7104 -8.02068 14.74214
267 13 1  -8.09082 -8.57418 14.55539
268 13 1  -7.59014 -7.97414 14.13552
269 13 1  -7.80949 -7.22985 14.55388
270 13 1  -7.9824 -6.85354 14.87492
271 13 1  -8.56725 -6.51852 15.00889
272 13 1  -8.27603 -6.26285 15.20415
273 13 1  -7.69979 -6.0257 14.66137
274 14 1  11.36392 -18.52681 0.51152
275 14 1  11.15474 -19.09598 -0.0175
276 14 1  10.81464 -18.83245 0.10918
277 14 1  10.49583 -19.3702 -0.32007
278 14 1  10.12567 -20.58473 -1.27936
279 14 1  9.81735 -20.08177 -1.23119
280 14 1  10.15637 -20.41636 -0.6555
281 14 1  9.10156 -19.94657 -0.43274
282 14 1  9.62138 -19.35181 0.80699
283 14 1  9.7629 -18.9449 0.95443
284 14 1  9.94452 -19.41009 0.62643
285 14 1  11.41257 -19.15011 0.52845
286 14 1  11.12211 -18.71922 0.2704
287 14 1  11.46154 -19.42775 0.34365
288 14 1  11.00389 -19.02386 0.49569
289 14 1  11.60389 -19.68412 0.04005
290 14 1  12.03735 -19.67328 0.41543
291 14 1  12.07792 -19.68667 0.82072
292 14 1  13.07519 -19.85756 0.8709
293 14 1  13.87945 -20.17796 0.62753
294 14 1  14.02475 -20.39264 0.48351
295 15 1  0.80879 5.70285 4.94672
296 15 1  0.63096 5.74036 4.57905
297 15 1  1.04602 5.45031 4.02936
298 15 1  1.19736 4.60249 4.29716
299 15 1  1.6306 4.80019 3.54707
300 15 1  1.87535 5.9051 3.25812
301 15 1  1.00537 6.06052 2.93085
302 15 1  1.68189 5.63735 2.34113
303 15 1  1.26239 4.78173 2.13678
304 15 1  0.9479 4.24176 2.83056
305 15 1  1.06678 4.20016 2.66298
306 15 1  0.97177 3.76816 2.54745
307 15 1  0.9531 4.50795 3.55846
308 15 1  2.23464 4.84675 3.3849
309 15 1  2.23819 5.94084 2.92274
310 15 1  2.93029 6.19246 2.94888
311 15 1  2.0641 6.13039 2.32747
312 15 1  2.40482 6.07175 2.80817
313 15 1  2.45619 5.82961 2.95853
314 15 1  2.6274 6.03911 3.62557
315 15 1  2.40061 6.5376 4.02061
316 16 1  1.77812 -2.03088 7.66496
317 16 1  1.25205 -1.76816 7.526
318 16 1  1.10147 -1.58001 7.07945
319 16 1  1.94839 -1.66383 6.69467
320 16 1  0.83563 -1.10003 6.22763
321 16 1  0.8967 -1.27916 7.17324
322 16 1  0.67311 -2.00424 6.67668
323 16 1  1.17982 -1.94598 6.80646
324 16 1  1.81711 -1.88266 6.73752
325 16 1  2.94507 -1.60198 6.35155
326 16 1  2.10651 -1.62918 5.87882
327 16 1  1.7658 -2.25961 6.62657
328 16 1  1.3487 -2.26306 7.6104
329 16 1  1.00496 -1.34055 7.59454
330 16 1  1.19426 -1.59879 8.00036
331 16 1  1.51402 -1.14489 7.54152
332 16 1  1.51867 -1.25668 7.52382
333 16 1  0.68744 -0.50567 7.64433
334 16 1  -0.29438 -0.39826 7.09183
335 16 1  -0.72125 -0.86236 7.11468
336 16 1  -1.39875 -0.97078 7.59976
337 17 1  -16.35094 0.51596 -14.75431
338 17 1  -16.76134 1.50313 -15.19198
339 17 1  -16.49269 2.09556 -14.38593
340 17 1  -16.79181 1.04079 -16.058
341 17 1  -17.16561 1.13063 -14.97572
342 17 1  -17.07161 0.96245 -15.11082
343 17 1  -17.20966 0.25428 -14.79466
344 17 1  -17.56283 0.81198 -14.47814
345 17 1  -17.7576 0.45445 -14.8952
346 17 1  -17.14725 0.00102 -15.38223
347 17 1  -16.48455 -0.6654 -15.34374
348 17 1  -16.12091 -0.26747 -14.37836
349 17 1  -15.64197 -0.87422 -15.18771
350 17 1  -15.42264 -0.47577 -15.56299
351 17 1  -15.08415 -1.41792 -15.44664
352 17 1  -14.24276 -1.86178 -14.99994
353 17 1  -14.47517 -1.41404 -14.72356
354 17 1  -14.76924 -1.73272 -14.04813
355 17 1  -15.48716 -0.69395 -14.35825
356 17 1  -15.61816 -0.29874 -14.76463
357 17 1  -16.01903 -0.37425 -14.03776
358 18 1  -2.29716 -10.49839 14.22657
359 18 1  -2.35145 -10.44363 13.8646
360 18 1  -2.19039 -10.6593 12.68267
361 18 1  -2.60731 -10.95444 12.8788
362 18 1  -2.57993 -9.60561 12.65649
363 18 1  -2.94517 -8.82274 12.07705
364 18 1  -3.32296 -8.75324 12.17566
365 18 1  -3.26257 -9.10769 12.4711
366 18 1  -3.01473 -7.85497 11.80027
367 18 1  -3.26262 -7.78167 11.32541
368 18 1  -3.08982 -7.61654 11.13346
369 18 1  -3.15397 -8.29111 12.2369
370 18 1  -2.67316 -8.71083 11.1974
371 18 1  -2.94763 -9.26496 10.67721
372 18 1  -3.84248 -8.9299 9.02958
373 18 1  -3.81254 -7.74959 9.30052
374 18 1  -5.25316 -6.83222 9.08153
375 18 1  -5.09227 -7.51603 9.46252
376 18 1  -4.63293 -7.18562 10.31461
377 18 1  -4.56096 -7.17412 10.83618
378 18 1  -4.57507 -7.60869 10.95866
379 19 1  0.51438 -4.84673 -7.35436
380 19 1  0.51615 -4.48831 -7.5957
381 19 1  0.04403 -4.26611 -7.30368
382 19 1  -0.09709 -3.69635 -7.3828
383 19 1  0.04126 -3.8852 -7.51415
384 19 1  -0.4639 -3.52483 -7.62255
385 19 1  0.01055 -3.83476 -8.09691
386 19 1  -0.09917 -3.79172 -7.86247
387 19 1  0.56173 -3.09833 -6.29652
388 19 1  0.76872 -3.49209 -6.36728
389 19 1  1.24964 -4.20669 -7.43104
390 19 1  1.61931 -4.23488 -6.669
391 19 1  1.98188 -3.50582 -6.73882
392 19 1  1.48061 -4.10847 -6.80401
393 19 1  0.85738 -3.34107 -6.97223
394 19 1  0.40861 -3.25022 -6.87863
395 19 1  0.77109 -3.85681 -7.48913
396 19 1  0.97083 -3.76442 -6.48838
397 19 1  0.69628 -3.28767 -6.75274
398 19 1  0.12515 -4.03576 -6.55835
399 19 1  -0.77709 -4.32217 -5.72835
400 20 1  12.99961 -17.51368 5.46489
401 20 1  12.97123 -16.92927 5.26291
402 20 1  12.98093 -17.54641 4.63271
403 20 1  13.68258 -17.00202 5.04732
404 20 1  13.25148 -17.56056 5.05345
405 20 1  14.31966 -16.81955 4.99534
406 20 1  14.93 -17.18734 4.75953
407 20 1  14.11802 -15.77057 5.22056
408 20 1  14.75402 -15.24541 5.32148
409 20 1  14.48615 -15.49213 5.62669
410 20 1  15.46668 -16.10415 6.38259
411 20 1  15.91525 -16.38637 5.69323
412 20 1  15.53643 -16.48264 5.34678
413 20 1  14.65369 -17.19397 4.97833
414 20 1  15.58941 -17.94035 4.63874
415 20 1  15.6553 -17.1576 4.55958
416 20 1  16.25434 -17.2108 4.47579
417 20 1  15.93921 -16.66677 4.45318
418 20 1  16.47563 -16.82175 3.57598
419 20 1  16.72706 -17.19763 4.09259
420 20 1  17.11486 -17.3931 4.51433
421 21 1  -11.46896 17.31391 -6.11834
422 21 1  -11.40173 16.63754 -7.3489
423 21 1  -12.24456 16.58854 -7.62306
424 21 1  -12.35408 16.17897 -7.95577
425 21 1  -12.35506 16.81681 -8.02327
426 21 1  -12.56562 16.86788 -6.73273
427 21 1  -12.40074 17.10459 -6.08637
428 21 1  -12.37805 17.03354 -7.17495
429 21 1  -12.66691 16.05286 -7.49317
430 21 1  -12.17263 16.2893 -7.67412
431 21 1  -12.56949 15.42113 -7.33313
432 21 1  -13.13379 15.48734 -7.26979
433 21 1  -12.61055 15.87301 -7.42069
434 21 1  -13.1932 15.75484 -6.94383
435 21 1  -13.03206 15.8631 -7.16297
436 21 1  -12.93439 15.96095 -6.68267
437 21 1  -13.05582 15.87526 -5.75941
438 21 1  -13.22716 15.40387 -5.79423
439 21 1  -13.5279 14.76697 -5.1226
440 21 1  -14.04223 13.53437 -5.96783
441 21 1  -14.4762 13.73071 -5.98765
442 22 1  19.18117 -3.05514 -19.27918
443 22 1  19.89374 -3.40968 -19.61799
444 22 1  20.0803 -3.30009 -19.70057
445 22 1  19.41515 -2.53173 -19.65926
446 22 1  19.92341 -2.79824 -20.3961
447 22 1  19.52343 -3.63463 -19.87888
448 22 1  20.40667 -3.27535 -19.82291
449 22 1  21.14248 -3.03362 -19.60869
450 22 1  21.60759 -3.84679 -19.88441
451 22 1  20.93835 -3.50794 -19.46716
452 22 1  21.20604 -3.17578 -19.92828
453 22 1  21.05839 -3.92949 -19.10911
454 22 1  21.07996 -4.60147 -20.15684
455 22 1  20.1976 -5.01297 -19.85346
456 22 1  20.83854 -5.13674 -18.71055
457 22 1  20.84515 -4.73888 -18.71423
458 22 1  21.10725 -4.53214 -19.87382
459 22 1  20.3359 -5.03478 -18.62075
460 22 1  20.70827 -5.14344 -19.35486
461 22 1  20.3919 -5.0391 -19.63773
462 22 1  20.45778 -5.71268 -19.9972
463 23 1  -6.22992 9.8197 8.71177
464 23 1  -5.90168 9.56571 8.11172
465 23 1  -5.46405 10.15846 7.8518
466 23 1  -5.64108 10.38956 7.53302
467 23 1  -5.12847 9.80235 7.63636
468 23 1  -4.72025 10.60244 8.34897
469 23 1  -4.9284 11.22948 7.8547
470 23 1  -5.74932 11.48611 8.25583
471 23 1  -6.0416 10.4596 7.19067
472 23 1  -6.0564 9.92634 7.9195
473 23 1  -5.21238 9.92612 7.94183
474 23 1  -4.97214 9.91979 8.55734
475 23 1  -4.72431 10.52879 8.80472
476 23 1  -4.86554 10.45097 8.75259
477 23 1  -5.07384 10.31073 8.62284
478 23 1  -4.9237 10.21072 8.49452
479 23 1  -5.39434 9.66433 7.95899
480 23 1  -5.48351 9.38968 7.66712
481 23 1  -6.14219 9.46154 7.37941
482 23 1  -5.41493 9.20687 6.25542
483 23 1  -5.57172 9.39971 7.15117
484 24 1  8.58863 -13.2337 11.40154
485 24 1  8.83556 -12.91307 10.78441
486 24 1  9.18255 -12.80516 9.55604
487 24 1  9.94715 -12.95705 9.96204
488 24 1  10.29867 -13.7541 9.53565
489 24 1  10.76503 -13.39686 9.40257
490 24 1  10.58348 -13.74775 10.77706
491 24 1  11.47622 -12.9563 10.35957
492 24 1  12.22111 -13.08573 10.83473
493 24 1  12.4556 -13.73385 10.51464
494 24 1  12.51458 -13.10292 9.25228
495 24 1  13.48949 -14.19964 9.7748
496 24 1  13.79681 -14.31792 9.58528
497 24 1  13.01731 -14.16056 9.47587
498 24 1  13.38515 -14.20262 10.38297
499 24 1  13.7228 -14.81399 9.96402
500 24 1  13.83617 -15.31778 10.15413
501 24 1  14.06885 -15.29653 9.9772
502 24 1  14.35927 -15.47567 9.78698
503 24 1  14.48326 -16.029 9.66081
504 24 1  15.17651 -16.17642 9.95471
505 25 1  -19.43032 -7.52463 18.98244
506 25 1  -19.74917 -6.93337 19.22413
507 25 1  -19.28312 -7.36276 18.53879
508 25 1  -19.17329 -6.80885 19.09719
509 25 1  -19.08912 -6.59985 19.57997
510 25 1  -19.28028 -7.15833 19.18042
511 25 1  -19.41585 -6.77366 19.55736
512 25 1  -19.30801 -7.3558 19.75345
513 25 1  -19.84875 -7.10958 19.03275
514 25 1  -19.7459 -6.07183 18.6301
515 25 1  -20.20163 -6.46145 17.45317
516 25 1  -20.64049 -6.2862 17.41259
517 25 1  -20.89159 -6.32649 17.69419
518 25 1  -21.65803 -6.2588 17.72971
519 25 1  -21.95541 -5.35447 16.5465
520 25 1  -21.884 -5.56424 15.87029
521 25 1  -22.06052 -6.27454 16.57308
522 25 1  -20.77315 -4.90244 16.75812
523 25 1  -20.09545 -4.57846 18.22186
524 25 1  -19.37602 -4.79243 17.79581
525 25 1  -19.36457 -4.377 17.8574
526 26 1  13.04615 -10.06835 -14.80967
527 26 1  12.76374 -10.32256 -14.71784
528 26 1  12.52288 -11.12325 -15.05444
529 26 1  11.8374 -12.6613 -14.95137
530 26 1  11.23036 -11.76308 -15.60628
531 26 1  11.79074 -12.54981 -15.98401
532 26 1  11.25124 -11.82305 -15.15989
533 26 1  11.16497 -11.7127 -15.77581
534 26 1  11.31027 -11.92878 -15.0567
535 26 1  11.4696 -11.20792 -15.36286
536 26 1  12.49035 -11.56999 -14.81457
537 26 1  13.10457 -11.42671 -13.83332
538 26 1  13.69015 -12.33751 -13.69006
539 26 1  13.76683 -11.81269 -13.57899
540 26 1  13.21802 -11.94526 -13.2707
541 26 1  13.61875 -12.38259 -12.63529
542 26 1  12.34269 -11.35347 -13.09746
543 26 1  12.09683 -11.22841 -12.31778
544 26 1  11.94483 -11.11655 -11.93745
545 26 1  12.42724 -10.66885 -11.58052
546 26 1  10.84608 -11.2847 -11.52573
547 27 1  9.59123 3.6361 -10.33964
548 27 1  10.19069 3.93824 -10.54672
549 27 1  9.87182 4.36859 -10.08781
550 27 1  10.38936 4.52813 -10.47989
551 27 1  9.96983 4.63566 -10.73973
552 27 1  9.75744 4.48145 -10.24482
553 27 1  9.32324 5.16558 -9.46004
554 27 1  10.38563 5.84191 -10.71843
555 27 1  10.72312 5.25561 -10.75508
556 27 1  10.60842 4.96534 -9.36458
557 27 1  10.55741 5.29174 -9.95527
558 27 1  9.84043 5.5694 -9.66471
559 27 1  9.14309 5.63488 -9.70687
560 27 1  9.05568 6.06867 -9.42493
561 27 1  8.92909 7.13776 -9.21892
562 27 1  8.84159 7.24333 -8.85698
563 27 1  9.14401 8.42542 -8.73381
564 27 1  8.51216 9.05678 -9.07896
565 27 1  8.67359 8.22118 -10.03327
566 27 1  8.78007 8.53966 -10.17823
567 27 1  9.76645 8.76141 -10.51507
568 28 1  5.38935 -19.63535 14.91805
569 28 1  6.03266 -19.56753 14.35178
570 28 1  6.21733 -19.59799 13.64015
571 28 1  5.82543 -18.74606 14.14045
572 28 1  5.23926 -18.79406 14.67516
573 28 1  4.36903 -19.15985 14.51594
574 28 1  4.4821 -20.25754 13.90446
575 28 1  5.55978 -20.90069 13.58247
576 28 1  5.54097 -21.24681 13.53092
577 28 1  5.11283 -20.86335 13.84526
578 28 1  5.17548 -20.98465 14.18465
579 28 1  5.42409 -20.45302 14.71354
580 28 1  4.61531 -19.91748 14.89275
581 28 1  4.50141 -19.95378 15.29534
582 28 1  5.05983 -19.62748 15.65085
583 28 1  5.1356 -19.96144 14.69377
584 28 1  6.66662 -19.69523 14.27361
585 28 1  7.3322 -19.14899 14.74253
586 28 1  6.42859 -18.61065 14.88344
587 28 1  6.99057 -19.13473 15.44765
588 28 1  6.7063 -20.37623 16.31801
589 29 1  19.0623 -17.74506 4.97952
590 29 1  19.28943 -17.53581 3.99297
591 29 1  18.44366 -17.51746 3.36831
592 29 1  17.49091 -17.29727 3.06383
593 29 1  16.99934 -17.65284 1.91189
594 29 1  17.2542 -19.00462 2.62969
595 29 1  17.16268 -19.38429 1.48709
596 29 1  16.78126 -20.091 1.63151
597 29 1  16.11172 -20.22572 0.75472
598 29 1  15.10528 -20.39475 0.9099
599 29 1  13.9111 -20.52773 0.97361
600 29 1  14.24674 -21.58034 1.99589
601 29 1  14.30775 -21.96222 1.48364
602 29 1  13.99877 -23.48079 1.41338
603 29 1  13.71728 -23.98971 1.2564
604 29 1  12.83196 -22.9074 0.03984
605 29 1  12.7841 -23.64559 -0.87714
606 29 1  12.86145 -23.9298 -1.54372
607 29 1  12.85686 -23.23651 -0.88938
608 29 1  12.5227 -23.02619 -0.81969
609 29 1  13.00002 -23.35437 -0.50278
610 30 1  -10.03393 5.65552 -9.11735
611 30 1  -9.13407 5.01506 -8.29391
612 30 1  -9.73757 5.38891 -7.6683
613 30 1  -9.23208 4.79485 -7.4584
614 30 1  -8.45256 5.49517 -7.56596
615 30 1  -8.93279 4.21192 -8.13629
616 30 1  -8.81175 4.34214 -8.09224
617 30 1  -8.99342 4.51416 -7.9475
618 30 1  -8.94676 4.70043 -8.07656
619 30 1  -8.30796 3.56703 -8.48548
620 30 1  -9.01736 2.76833 -8.64385
621 30 1  -9.17089 2.95278 -9.14242
622 30 1  -9.51648 2.4694 -8.45804
623 30 1  -10.54785 2.22611 -8.69697
624 30 1  -10.62959 3.13618 -8.0104
625 30 1  -10.12683 2.87473 -8.36841
626 30 1  -9.80691 2.91028 -9.68622
627 30 1  -9.23246 3.45318 -8.75394
628 30 1  -10.14865 4.17569 -8.35306
629 30 1  -10.29193 4.55174 -7.92477
630 30 1  -9.78711 5.27453 -9.39029
631 31 1  10.20029 5.02715 4.07576
632 31 1  10.61246 4.76069 4.17806
633 31 1  11.75612 4.97154 4.31555
634 31 1  11.77732 4.46685 4.22009
635 31 1  11.3861 4.7692 4.31887
636 31 1  11.33498 4.46297 4.47644
637 31 1  11.38673 4.18548 4.89571
638 31 1  10.37466 3.82098 5.90325
639 31 1  10.04881 4.56855 7.1656
640 31 1  9.51558 4.5909 7.59179
641 31 1  9.83736 4.10141 8.34516
642 31 1  10.65233 3.41796 8.29723
643 31 1  9.51496 3.12161 8.88833
644 31 1  8.69801 2.74377 9.37297
645 31 1  8.97442 2.65057 9.31229
646 31 1  8.02484 2.37148 8.76012
647 31 1  7.06968 2.20384 8.75427
648 31 1  6.30403 2.29231 10.01973
649 31 1  5.68228 2.46288 9.00628
650 31 1  6.03418 2.61373 9.0457
651 31 1  5.89075 2.91893 9.79588
652 32 1  14.96111 -5.90776 -9.76351
653 32 1  15.35368 -5.71763 -10.36639
654 32 1  14.115 -6.34409 -10.4301
655 32 1  14.04275 -5.84587 -10.77313
656 32 1  13.10438 -5.75206 -11.72458
657 32 1  12.14972 -5.98311 -12.15771
658 32 1  11.55383 -6.65284 -11.29773
659 32 1  11.5361 -6.63759 -10.61712
660 32 1  11.98126 -6.72097 -10.94007
661 32 1  11.28192 -7.22837 -10.78947
662 32 1  11.58996 -6.66074 -11.47078
663 32 1  11.47946 -6.59728 -11.47854
664 32 1  10.96784 -6.62975 -12.44336
665 32 1  11.37685 -6.92801 -13.29707
666 32 1  10.89102 -7.26663 -13.94139
667 32 1  12.44057 -7.45176 -13.08943
668 32 1  13.03447 -7.71777 -13.61301
669 32 1  13.78253 -6.91962 -14.67992
670 32 1  14.01092 -6.60622 -14.99402
671 32 1  13.65474 -6.83023 -15.90204
672 32 1  12.53591 -6.5792 -15.81427
673 33 1  13.91304 -5.233 -13.18238
674 33 1  13.12783 -4.85283 -13.16926
675 33 1  13.11145 -5.36263 -13.28979
676 33 1  12.98778 -5.17475 -13.41161
677 33 1  14.02557 -4.73311 -13.39789
678 33 1  14.32819 -4.45538 -13.76542
679 33 1  13.41159 -4.63864 -14.04478
680 33 1  12.11361 -5.42423 -13.71396
681 33 1  12.10517 -5.6062 -13.00216
682 33 1  12.08845 -5.21727 -13.1237
683 33 1  10.96641 -4.76024 -13.18576
684 33 1  9.9414 -4.95767 -13.26549
685 33 1  10.17246 -5.13274 -14.56067
686 33 1  9.47925 -5.19978 -14.54102
687 33 1  9.20561 -4.80629 -13.1798
688 33 1  8.74832 -4.97502 -13.86223
689 33 1  8.23545 -6.10625 -14.48213
690 33 1  8.20067 -5.91617 -14.66363
691 33 1  7.69126 -5.88609 -14.89066
692 33 1  6.84493 -5.23443 -14.08108
693 33 1  7.05342 -5.49363 -12.78638
694 34 1  -12.64447 5.90092 6.55585
695 34 1  -11.72464 6.21929 6.61245
696 34 1  -11.92706 7.32893 7.15341
697 34 1  -11.18547 6.36188 6.88203
698 34 1  -11.13241 6.94532 8.0024
699 34 1  -12.16294 6.50055 7.9206
700 34 1  -12.28466 7.24459 6.99498
701 34 1  -12.9156 8.42006 6.92466
702 34 1  -12.26308 8.03942 6.98915
703 34 1  -12.7714 7.24328 6.40023
704 34 1  -12.04888 7.25617 7.51601
705 34 1  -11.48217 6.92833 7.71101
706 34 1  -10.22261 6.42719 7.42518
707 34 1  -9.65899 5.55097 8.55708
708 34 1  -9.6462 5.68233 9.17285
709 34 1  -9.25996 5.52235 8.53309
710 34 1  -9.13586 4.9639 8.33802
711 34 1  -9.55175 4.0828 8.06771
712 34 1  -9.96895 4.3098 7.66329
713 34 1  -9.47991 4.60943 8.37716
714 34 1  -9.62299 5.08747 7.67118
715 35 1  -0.10285 1.93997 3.46581
716 35 1  -0.88644 1.39158 3.34612
717 35 1  -0.94913 2.32418 2.97144
718 35 1  -1.03041 2.91075 3.19486
719 35 1  -1.01765 2.84608 2.8941
720 35 1  -0.81749 2.48887 2.84397
721 35 1  -0.51222 2.79801 3.01759
722 35 1  -0.09439 2.61876 2.86532
723 35 1  0.15382 2.58204 2.46721
724 35 1  -0.66454 1.82104 1.88606
725 35 1  -0.33675 2.1918 2.3427
726 35 1  -1.30053 2.12503 3.14333
727 35 1  -1.26086 1.34254 2.67571
728 35 1  -1.49002 0.79958 2.66374
729 35 1  -1.69191 0.88832 2.13685
730 35 1  -1.57894 1.1136 2.52471
731 35 1  -1.30258 1.73087 3.5804
732 35 1  -1.3588 1.42418 2.93511
733 35 1  -0.78811 0.57078 3.10003
734 35 1  -0.0242 0.48088 2.55864
735 35 1  -0.42136 0.94723 1.90947
736 36 1  16.09818 -11.03857 -12.778
737 36 1  16.10312 -10.2007 -13.27895
738 36 1  17.16586 -9.3602 -13.63486
739 36 1  17.25226 -8.8668 -13.66969
740 36 1  18.37447 -8.89246 -13.01674
741 36 1  18.56186 -8.77171 -14.50221
742 36 1  18.58004 -8.78627 -14.7917
743 36 1  17.933 -8.8888 -14.73578
744 36 1  17.81953 -8.47365 -15.1956
745 36 1  18.21985 -8.9014 -14.84836
746 36 1  17.2514 -8.64183 -15.62771
747 36 1  17.54709 -7.68965 -15.73016
748 36 1  17.38327 -7.38922 -15.69597
749 36 1  17.55586 -6.74949 -15.88375
750 36 1  17.89865 -6.1653 -15.63192
751 36 1  17.78207 -6.44337 -15.34498
752 36 1  18.12786 -6.21615 -15.36035
753 36 1  18.50234 -6.05397 -15.05606
754 36 1  17.59046 -6.0364 -15.09842
755 36 1  17.84967 -5.19249 -15.22048
756 36 1  17.70678 -6.23327 -15.33134
757 37 1  19.72653 12.8626 10.57486
758 37 1  20.04284 13.39597 9.73823
759 37 1  20.24401 14.19553 9.34784
760 37 1  20.33276 15.39283 9.4342
761 37 1  20.04344 15.19756 8.37782
762 37 1  19.3674 16.20921 8.10818
763 37 1  19.97893 15.65307 7.27486
764 37 1  20.43351 16.18183 7.37404
765 37 1  20.86573 15.2923 7.68476
766 37 1  21.22687 15.55738 7.47596
767 37 1  21.28522 14.86792 8.27132
768 37 1  20.82932 13.56346 8.15445
769 37 1  20.87088 12.93862 8.36297
770 37 1  20.80717 12.76365 8.36664
771 37 1  22.43724 12.73447 6.61967
772 37 1  21.33997 12.81827 5.76745
773 37 1  20.53548 13.16505 5.63295
774 37 1  20.50664 13.8147 6.7773
775 37 1  20.06411 13.27914 6.3776
776 37 1  20.57686 13.04467 6.92788
777 37 1  20.66313 13.14922 7.52569
778 38 1  -16.50382 -16.6497 18.90159
779 38 1  -16.40249 -16.18291 18.62106
780 38 1  -15.79548 -16.39734 18.47363
781 38 1  -15.55062 -16.00145 18.51393
782 38 1  -16.08129 -14.47391 19.75997
783 38 1  -16.00568 -15.25191 19.59551
784 38 1  -15.3811 -14.65815 19.64103
785 38 1  -14.7488 -14.76194 18.99728
786 38 1  -15.12352 -14.90087 19.85646
787 38 1  -14.9477 -14.16616 20.15409
788 38 1  -15.16043 -13.80744 19.95499
789 38 1  -15.09488 -13.76887 20.49075
790 38 1  -14.84422 -14.59392 20.42382
791 38 1  -14.42349 -15.28677 20.18539
792 38 1  -14.30937 -15.13051 19.9098
793 38 1  -14.20007 -14.77986 20.29529
794 38 1  -15.25887 -14.35829 20.24515
795 38 1  -14.53324 -13.28992 19.03366
796 38 1  -14.62681 -14.05476 19.39833
797 38 1  -14.74484 -13.80921 20.29858
798 38 1  -15.09141 -13.61836 20.64961
799 39 1  4.24711 -14.73307 -6.05948
800 39 1  3.64865 -13.79861 -5.89934
801 39 1  3.86386 -13.13997 -5.60118